# vtk DataFile Version 3.0
vtk output
ASCII
DATASET UNSTRUCTURED_GRID
POINTS 2871 float
1.143761e+00	1.196300e+00	0.000000e+00	1.141282e+00	1.196300e+00	-3.245436e-04	1.138308e+00	1.196300e+00	-7.138498e-04	1.134738e+00	1.196300e+00	-1.180879e-03	1.130455e+00	1.196300e+00	-1.741238e-03	1.125314e+00	1.196300e+00	-2.413765e-03	1.119146e+00	1.196300e+00	-3.220319e-03	1.111744e+00	1.196300e+00	-4.184135e-03	1.102859e+00	1.196300e+00	-5.324408e-03	1.093965e+00	1.196300e+00	-6.399714e-03	1.083861e+00	1.196300e+00	-7.546893e-03	1.072466e+00	1.196300e+00	-8.781329e-03	1.059719e+00	1.196300e+00	-1.009623e-02	1.045589e+00	1.196300e+00	-1.148210e-02	1.030084e+00	1.196300e+00	-1.293178e-02	1.013254e+00	1.196300e+00	-1.443076e-02	9.952045e-01	1.196300e+00	-1.595375e-02	9.760902e-01	1.196300e+00	-1.745622e-02	9.561178e-01	1.196300e+00	-1.886830e-02	9.355388e-01	1.196300e+00	-2.010813e-02	9.146401e-01	1.196300e+00	-2.109616e-02	8.937290e-01	1.196300e+00	-2.177100e-02	8.731156e-01	1.196300e+00	-2.211562e-02	8.530935e-01	1.196300e+00	-2.214513e-02	8.339219e-01	1.196300e+00	-2.190316e-02	8.158139e-01	1.196300e+00	-2.144773e-02	7.989294e-01	1.196300e+00	-2.082857e-02	7.833738e-01	1.196300e+00	-2.008465e-02	7.692013e-01	1.196300e+00	-1.924110e-02	7.564201e-01	1.196300e+00	-1.832022e-02	7.450008e-01	1.196300e+00	-1.733540e-02	7.348840e-01	1.196300e+00	-1.630462e-02	7.259885e-01	1.196300e+00	-1.524944e-02	7.171143e-01	1.196300e+00	-1.402835e-02	7.097420e-01	1.196300e+00	-1.285726e-02	7.036569e-01	1.196300e+00	-1.157460e-02	6.987753e-01	1.196300e+00	-9.849854e-03	6.950898e-01	1.196300e+00	-7.614294e-03	6.925592e-01	1.196300e+00	-5.067873e-03	6.911185e-01	1.196300e+00	-2.449611e-03	6.906841e-01	1.196300e+00	0.000000e+00	6.922303e-01	1.198237e+00	0.000000e+00	6.952372e-01	1.200514e+00	0.000000e+00	7.002620e-01	1.203019e+00	0.000000e+00	7.075237e-01	1.205546e+00	0.000000e+00	7.176992e-01	1.208097e+00	0.000000e+00	7.302035e-01	1.210402e+00	0.000000e+00	7.429761e-01	1.212188e+00	0.000000e+00	7.559600e-01	1.213606e+00	0.000000e+00	7.691114e-01	1.214738e+00	0.000000e+00	7.823966e-01	1.215637e+00	0.000000e+00	7.957819e-01	1.216337e+00	0.000000e+00	8.092383e-01	1.216864e+00	0.000000e+00	8.227346e-01	1.217236e+00	0.000000e+00	8.362423e-01	1.217469e+00	0.000000e+00	8.497323e-01	1.217575e+00	0.000000e+00	8.631764e-01	1.217564e+00	0.000000e+00	8.765472e-01	1.217446e+00	0.000000e+00	8.898177e-01	1.217229e+00	0.000000e+00	9.029625e-01	1.216921e+00	0.000000e+00	9.159570e-01	1.216528e+00	0.000000e+00	9.289487e-01	1.216050e+00	0.000000e+00	9.420843e-01	1.215483e+00	0.000000e+00	9.553392e-01	1.214827e+00	0.000000e+00	9.686882e-01	1.214082e+00	0.000000e+00	9.821045e-01	1.213248e+00	0.000000e+00	9.955614e-01	1.212328e+00	0.000000e+00	1.009032e+00	1.211322e+00	0.000000e+00	1.022487e+00	1.210232e+00	0.000000e+00	1.035900e+00	1.209059e+00	0.000000e+00	1.049244e+00	1.207807e+00	0.000000e+00	1.062491e+00	1.206478e+00	0.000000e+00	1.075616e+00	1.205074e+00	0.000000e+00	1.088593e+00	1.203599e+00	0.000000e+00	1.101398e+00	1.202057e+00	0.000000e+00	1.114013e+00	1.200450e+00	0.000000e+00	1.124415e+00	1.199058e+00	0.000000e+00	1.132030e+00	1.197999e+00	0.000000e+00	1.137585e+00	1.197205e+00	0.000000e+00	1.141314e+00	1.196661e+00	0.000000e+00	1.004801e+00	1.206487e+00	-9.272488e-03	9.925574e-01	1.208234e+00	-8.742949e-03	6.921676e-01	1.197746e+00	-1.992097e-03	6.937438e-01	1.198757e+00	-2.968495e-03	6.965482e-01	1.200397e+00	-3.552272e-03	1.135692e+00	1.197090e+00	-6.377273e-04	7.044402e-01	1.203902e+00	-3.432905e-03	7.000391e-01	1.200512e+00	-6.540404e-03	6.943633e-01	1.198045e+00	-5.122436e-03	6.962799e-01	1.198459e+00	-6.481533e-03	7.118737e-01	1.205730e+00	-4.226229e-03	7.057415e-01	1.202040e+00	-7.456329e-03	7.188563e-01	1.202790e+00	-1.023513e-02	7.120474e-01	1.202630e+00	-8.826114e-03	7.267294e-01	1.205190e+00	-9.415305e-03	7.357972e-01	1.205716e+00	-1.046084e-02	7.428297e-01	1.209001e+00	-7.908016e-03	7.558570e-01	1.210634e+00	-7.788131e-03	7.488494e-01	1.206399e+00	-1.160487e-02	7.705633e-01	1.211854e+00	-7.991003e-03	7.630408e-01	1.207330e+00	-1.226994e-02	7.846148e-01	1.211959e+00	-9.221564e-03	7.756305e-01	1.207428e+00	-1.325628e-02	7.945795e-01	1.209992e+00	-1.212807e-02	8.044669e-01	1.213521e+00	-8.556203e-03	8.157331e-01	1.212946e+00	-9.902010e-03	8.208608e-01	1.205377e+00	-1.716697e-02	8.073305e-01	1.206053e+00	-1.618457e-02	8.289565e-01	1.211489e+00	-1.204662e-02	8.382585e-01	1.214373e+00	-8.695927e-03	8.462784e-01	1.209825e+00	-1.403985e-02	8.597205e-01	1.206630e+00	-1.684140e-02	8.574581e-01	1.214027e+00	-9.383495e-03	8.683222e-01	1.211599e+00	-1.228614e-02	8.763709e-01	1.214363e+00	-8.718676e-03	8.831866e-01	1.209222e+00	-1.444283e-02	8.975550e-01	1.211780e+00	-1.146111e-02	8.880927e-01	1.214410e+00	-8.342702e-03	9.167285e-01	1.211058e+00	-1.146067e-02	9.264048e-01	1.207422e+00	-1.447099e-02	9.061447e-01	1.206708e+00	-1.595223e-02	9.357314e-01	1.210254e+00	-1.125594e-02	9.557906e-01	1.210948e+00	-9.008599e-03	9.665999e-01	1.206563e+00	-1.257085e-02	9.451600e-01	1.207273e+00	-1.349793e-02	9.757172e-01	1.208698e+00	-9.831586e-03	1.077653e+00	1.201501e+00	-5.441613e-03	1.067121e+00	1.202246e+00	-6.137702e-03	1.054096e+00	1.203119e+00	-6.957043e-03	1.039672e+00	1.204170e+00	-7.694399e-03	1.022327e+00	1.206211e+00	-7.707328e-03	9.079022e-01	1.213731e+00	-8.535543e-03	7.900367e-01	1.202981e+00	-1.750479e-02	7.763962e-01	1.201203e+00	-1.777738e-02	7.640693e-01	1.201526e+00	-1.671950e-02	7.520203e-01	1.201965e+00	-1.540605e-02	7.408299e-01	1.201609e+00	-1.446664e-02	9.844563e-01	1.205719e+00	-1.181481e-02	7.320004e-01	1.201317e+00	-1.356613e-02	7.133638e-01	1.199564e+00	-1.183761e-02	7.073934e-01	1.199404e+00	-1.069289e-02	7.028300e-01	1.199251e+00	-9.413665e-03	8.059000e-01	0.000000e+00	0.000000e+00	8.034211e-01	0.000000e+00	-3.243950e-04	8.004465e-01	0.000000e+00	-7.135913e-04	7.968769e-01	0.000000e+00	-1.180279e-03	7.925935e-01	0.000000e+00	-1.741366e-03	7.874532e-01	0.000000e+00	-2.413416e-03	7.812850e-01	0.000000e+00	-3.220919e-03	7.738831e-01	0.000000e+00	-4.188751e-03	7.650009e-01	0.000000e+00	-5.351064e-03	7.543418e-01	0.000000e+00	-6.742543e-03	7.415491e-01	0.000000e+00	-8.398835e-03	7.261909e-01	0.000000e+00	-1.033152e-02	7.077409e-01	0.000000e+00	-1.248413e-02	6.892785e-01	0.000000e+00	-1.452775e-02	6.697388e-01	0.000000e+00	-1.659866e-02	6.491377e-01	0.000000e+00	-1.868532e-02	6.275054e-01	0.000000e+00	-2.078426e-02	6.048864e-01	0.000000e+00	-2.289387e-02	5.813398e-01	0.000000e+00	-2.500579e-02	5.569393e-01	0.000000e+00	-2.710861e-02	5.317723e-01	0.000000e+00	-2.917788e-02	5.059394e-01	0.000000e+00	-3.117797e-02	4.795533e-01	0.000000e+00	-3.306399e-02	4.527377e-01	0.000000e+00	-3.478436e-02	4.256254e-01	0.000000e+00	-3.628648e-02	3.983565e-01	0.000000e+00	-3.752324e-02	3.710757e-01	0.000000e+00	-3.846328e-02	3.439289e-01	0.000000e+00	-3.908161e-02	3.170600e-01	0.000000e+00	-3.939351e-02	2.906067e-01	0.000000e+00	-3.939962e-02	2.646979e-01	0.000000e+00	-3.913218e-02	2.394513e-01	0.000000e+00	-3.862237e-02	2.149710e-01	0.000000e+00	-3.790266e-02	1.913473e-01	0.000000e+00	-3.699761e-02	1.686556e-01	0.000000e+00	-3.592432e-02	1.469567e-01	0.000000e+00	-3.469072e-02	1.262971e-01	0.000000e+00	-3.329920e-02	1.067099e-01	0.000000e+00	-3.174290e-02	8.821535e-02	0.000000e+00	-3.001537e-02	6.975188e-02	0.000000e+00	-2.798338e-02	5.439906e-02	0.000000e+00	-2.600998e-02	4.163665e-02	0.000000e+00	-2.413576e-02	3.103653e-02	0.000000e+00	-2.235214e-02	2.230194e-02	0.000000e+00	-2.037675e-02	1.526144e-02	0.000000e+00	-1.791411e-02	9.796146e-03	0.000000e+00	-1.495897e-02	5.750728e-03	0.000000e+00	-1.172876e-02	2.933593e-03	0.000000e+00	-8.462337e-03	1.160626e-03	0.000000e+00	-5.336356e-03	2.510064e-04	0.000000e+00	-2.483339e-03	0.000000e+00	0.000000e+00	0.000000e+00	1.250000e-03	2.165064e-03	0.000000e+00	2.750000e-03	4.763140e-03	0.000000e+00	4.550000e-03	7.880831e-03	0.000000e+00	6.710000e-03	1.162206e-02	0.000000e+00	9.302000e-03	1.611154e-02	0.000000e+00	1.241240e-02	2.149891e-02	0.000000e+00	1.614488e-02	2.796375e-02	0.000000e+00	2.062386e-02	3.572157e-02	0.000000e+00	2.599863e-02	4.503094e-02	0.000000e+00	3.244835e-02	5.620220e-02	0.000000e+00	4.018802e-02	6.960770e-02	0.000000e+00	4.947563e-02	8.569430e-02	0.000000e+00	6.062075e-02	1.049982e-01	0.000000e+00	7.176588e-02	1.243021e-01	0.000000e+00	8.488125e-02	1.470186e-01	0.000000e+00	1.001947e-01	1.735423e-01	0.000000e+00	1.179119e-01	2.042294e-01	0.000000e+00	1.381946e-01	2.393601e-01	0.000000e+00	1.611352e-01	2.790944e-01	0.000000e+00	1.867298e-01	3.234256e-01	0.000000e+00	2.148538e-01	3.721377e-01	0.000000e+00	2.452444e-01	4.247757e-01	0.000000e+00	2.774963e-01	4.806377e-01	0.000000e+00	3.110741e-01	5.387962e-01	0.000000e+00	3.453421e-01	5.981500e-01	0.000000e+00	3.796100e-01	6.575038e-01	0.000000e+00	4.131878e-01	7.156623e-01	0.000000e+00	4.454398e-01	7.715243e-01	0.000000e+00	4.758303e-01	8.241623e-01	0.000000e+00	5.039543e-01	8.728744e-01	0.000000e+00	5.295489e-01	9.172056e-01	0.000000e+00	5.524895e-01	9.569399e-01	0.000000e+00	5.727722e-01	9.920706e-01	0.000000e+00	5.904894e-01	1.022758e+00	0.000000e+00	6.058029e-01	1.049281e+00	0.000000e+00	6.189182e-01	1.071998e+00	0.000000e+00	6.300634e-01	1.091302e+00	0.000000e+00	6.412085e-01	1.110606e+00	0.000000e+00	6.504961e-01	1.126692e+00	0.000000e+00	6.582358e-01	1.140098e+00	0.000000e+00	6.646855e-01	1.151269e+00	0.000000e+00	6.700603e-01	1.160578e+00	0.000000e+00	6.745392e-01	1.168336e+00	0.000000e+00	6.782717e-01	1.174801e+00	0.000000e+00	6.813821e-01	1.180188e+00	0.000000e+00	6.839741e-01	1.184678e+00	0.000000e+00	6.861341e-01	1.188419e+00	0.000000e+00	6.879341e-01	1.191537e+00	0.000000e+00	6.894341e-01	1.194135e+00	0.000000e+00	1.143082e+00	1.193894e+00	0.000000e+00	1.142266e+00	1.191007e+00	0.000000e+00	1.141288e+00	1.187543e+00	0.000000e+00	1.140114e+00	1.183385e+00	0.000000e+00	1.138705e+00	1.178396e+00	0.000000e+00	1.137014e+00	1.172410e+00	0.000000e+00	1.134985e+00	1.165226e+00	0.000000e+00	1.132550e+00	1.156605e+00	0.000000e+00	1.129629e+00
[...]
POINT_DATA 2871

SCALARS Conservative_1 float 1
LOOKUP_TABLE default
8.308165e-01	1.106562e+00	9.778146e-01	9.923182e-01	1.020052e+00	1.005915e+00	1.000505e+00	9.765884e-01	1.005303e+00	1.013871e+00	9.508101e-01	9.724602e-01	9.730483e-01	9.726222e-01	9.655043e-01	9.695754e-01	9.622422e-01	9.582562e-01	9.494937e-01	9.386046e-01	9.299298e-01	9.268160e-01	9.092094e-01	9.183530e-01	9.015364e-01	9.047339e-01	8.882389e-01	8.747674e-01	8.719238e-01	8.713887e-01	8.669514e-01	8.712398e-01	8.719460e-01	8.326389e-01	8.236796e-01	7.999931e-01	8.114071e-01	8.768485e-01	9.459887e-01	1.082507e+00	1.030352e+00	8.487975e-01	7.737627e-01	7.554804e-01	7.130070e-01	7.404430e-01	8.018268e-01	7.609878e-01	7.587945e-01	7.658091e-01	7.887294e-01	8.363278e-01	8.239281e-01	8.337488e-01	8.985733e-01	8.515651e-01	8.514810e-01	8.530977e-01	8.423494e-01	8.925597e-01	8.528438e-01	8.947985e-01	8.923044e-01	8.739279e-01	8.730540e-01	8.886844e-01	8.708931e-01	8.951780e-01	9.008529e-01	8.515858e-01	8.480493e-01	8.358371e-01	8.274598e-01	8.020310e-01	8.300340e-01	8.190847e-01	7.957014e-01	8.240338e-01	8.120818e-01	9.298321e-01	9.406338e-01	9.422834e-01	9.272024e-01	8.245581e-01	7.691351e-01	9.338252e-01	7.833190e-01	7.893971e-01	8.678321e-01	7.922493e-01	7.087726e-01	7.656709e-01	7.747167e-01	7.921026e-01	8.554940e-01	8.336508e-01	8.370906e-01	8.039743e-01	8.153868e-01	8.032370e-01	8.422639e-01	8.224999e-01	8.252135e-01	8.802058e-01	8.840365e-01	8.606030e-01	8.542227e-01	8.739312e-01	8.988200e-01	8.527072e-01	9.196684e-01	8.827079e-01	8.960316e-01	9.010847e-01	8.941682e-01	9.054295e-01	9.123517e-01	8.493864e-01	8.897931e-01	9.263675e-01	9.029716e-01	9.418010e-01	9.284637e-01	9.340875e-01	9.246573e-01	9.417116e-01	9.226640e-01	9.238664e-01	9.321466e-01	9.386799e-01	9.327511e-01	8.756428e-01	8.481149e-01	8.379949e-01	8.368534e-01	8.326611e-01	8.298730e-01	9.387652e-01	8.709669e-01	7.734387e-01	7.668287e-01	7.778495e-01	1.116308e+00	1.130690e+00	1.111084e+00	1.096874e+00	1.083627e+00	1.071225e+00	1.059782e+00	1.046832e+00	1.034726e+00	1.021055e+00	1.005815e+00	9.912693e-01	9.811542e-01	9.733712e-01	9.658220e-01	9.582773e-01	9.523451e-01	9.458180e-01	9.385560e-01	9.305436e-01	9.244552e-01	9.174720e-01	9.139564e-01	9.109635e-01	9.089659e-01	9.125844e-01	9.177695e-01	9.263714e-01	9.365668e-01	9.446568e-01	9.543097e-01	9.647427e-01	9.717816e-01	9.805544e-01	9.897738e-01	9.968026e-01	1.004506e+00	1.014377e+00	1.025431e+00	1.035334e+00	1.045668e+00	1.052311e+00	1.054426e+00	1.070237e+00	1.136343e+00	1.201624e+00	1.279000e+00	1.327128e+00	1.377399e+00	1.383947e+00	1.393665e+00	1.388438e+00	1.356971e+00	1.361400e+00	1.353377e+00	1.352196e+00	1.312955e+00	1.308958e+00	1.310141e+00	1.290672e+00	1.297395e+00	1.283176e+00	1.276672e+00	1.277483e+00	1.265095e+00	1.268291e+00	1.261417e+00	1.261915e+00	1.256801e+00	1.254138e+00	1.255007e+00	1.251736e+00	1.248357e+00	1.245863e+00	1.246566e+00	1.245655e+00	1.244120e+00	1.241868e+00	1.240303e+00	1.238773e+00	1.236651e+00	1.238118e+00	1.236237e+00	1.236403e+00	1.234566e+00	1.229751e+00	1.231593e+00	1.229880e+00	1.232306e+00	1.224178e+00	1.233282e+00	1.220798e+00	1.221794e+00	1.221291e+00	1.217025e+00	1.210219e+00	1.206876e+00	1.194625e+00	1.180324e+00	1.134517e+00	9.445445e-01	9.543918e-01	9.912781e-01	9.922870e-01	1.006294e+00	1.017787e+00	1.034374e+00	1.036211e+00	1.052319e+00	1.068074e+00	1.075118e+00	1.074860e+00	1.071637e+00	1.078543e+00	1.079703e+00	1.081044e+00	1.083773e+00	1.081085e+00	1.087481e+00	1.075722e+00	1.088342e+00	1.085997e+00	1.089094e+00	1.090141e+00	1.090948e+00	1.092307e+00	1.090782e+00	1.093015e+00	1.092547e+00	1.092843e+00	1.093740e+00	1.096030e+00	1.096706e+00	1.095867e+00	1.096638e+00	1.099156e+00	1.097222e+00	1.102226e+00	1.105461e+00	1.106887e+00	1.098987e+00	1.094017e+00	1.092793e+00	1.092842e+00	1.092058e+00	1.094064e+00	1.085787e+00	1.098053e+00	1.091613e+00	9.285565e-01	9.249412e-01	1.323839e+00	1.327389e+00	1.307223e+00	1.297816e+00	1.284870e+00	1.288079e+00	1.311392e+00	1.295855e+00	1.288176e+00	1.274605e+00	1.276299e+00	1.131388e+00	1.042919e+00	1.047790e+00	1.136883e+00	1.280399e+00	1.282997e+00	9.985561e-01	9.939664e-01	9.938868e-01	1.115581e+00	1.024797e+00	1.029338e+00	1.119621e+00	9.780045e-01	9.874055e-01	9.898604e-01	9.804257e-01	1.012516e+00	9.762023e-01	1.015863e+00	1.276809e+00	1.277422e+00	1.260935e+00	1.263219e+00	1.102329e+00	1.088840e+00	1.119010e+00	1.115202e+00	1.123085e+00	1.079052e+00	1.075364e+00	1.068978e+00	1.065599e+00	1.084531e+00	1.084851e+00	1.134473e+00	1.137085e+00	1.131557e+00	1.088935e+00	1.084763e+00	1.131719e+00	1.141505e+00	1.133137e+00	9.615360e-01	9.688919e-01	1.078286e+00	1.065189e+00	1.063663e+00	1.076712e+00	1.067104e+00	1.064323e+00	1.078589e+00	1.080480e+00	1.271949e+00	1.270295e+00	9.343698e-01	9.348252e-01	9.281069e-01	9.130723e-01	9.170049e-01	9.150516e-01	1.053433e+00	1.063895e+00	1.018228e+00	1.032928e+00	1.034085e+00	1.020317e+00	1.044538e+00	9.805375e-01	9.890081e-01	9.809289e-01	9.960648e-01	1.010108e+00	1.007452e+00	9.865765e-01	9.682120e-01	9.615211e-01	9.623369e-01	9.747989e-01	9.739979e-01	9.679172e-01	1.160147e+00	8.390709e-01	8.084901e-01	8.239266e-01	1.145299e+00	1.149182e+00	9.410947e-01	9.552226e-01	9.492913e-01	8.494584e-01	8.705732e-01	8.582576e-01	8.671606e-01	8.756273e-01	8.770984e-01	8.818458e-01	8.784609e-01	8.791184e-01	8.797540e-01	8.820735e-01	1.253710e+00	1.257312e+00	8.816169e-01	8.843576e-01	1.206051e+00	1.208610e+00	8.902941e-01	8.880127e-01	8.977304e-01	1.252145e+00	8.974832e-01	8.939602e-01	1.101276e+00	1.100790e+00	1.140505e+00	1.141798e+00	1.267440e+00	1.259400e+00	1.224086e+00	1.236677e+00	1.103246e+00	1.142730e+00	1.143102e+00	1.267393e+00	1.266875e+00	1.235917e+00	1.236326e+00	1.072450e+00	1.072291e+00	1.084196e+00	1.083951e+00	1.104251e+00	1.103736e+00	1.143154e+00	1.144256e+00	1.271904e+00	1.272859e+00	1.270616e+00	1.270918e+00	1.144884e+00	1.145259e+00	1.105077e+00	1.104032e+00	1.145099e+00	1.144135e+00	1.144985e+00	1.105773e+00	1.104924e+00	1.274711e+00	1.257802e+00	1.246506e+00	1.242580e+00	1.156060e+00	1.162612e+00	1.238605e+00	1.150456e+00	1.264493e+00	9.878968e-01	9.880364e-01	1.002422e+00	1.003000e+00	1.140025e+00	1.142561e+00	1.145297e+00	1.147416e+00	1.108453e+00	1.107546e+00	1.254304e+00	1.253202e+00	1.183805e+00	1.187002e+00	1.103165e+00	1.139322e+00	1.101534e+00	1.103987e+00	1.248450e+00	1.266768e+00	1.254723e+00	1.181801e+00	9.040642e-01	1.268856e+00	9.565866e-01	9.557321e-01	9.753773e-01	9.770652e-01	9.035977e-01	9.172125e-01	9.195238e-01	1.271662e+00	1.122314e+00	1.094463e+00	1.092085e+00	1.100306e+00	1.099420e+00	9.462091e-01	9.550575e-01	1.142834e+00	1.007169e+00	1.007852e+00	1.023299e+00	1.023182e+00	1.286913e+00	1.267593e+00	1.271830e+00	1.277754e+00	1.262993e+00	1.263660e+00	1.015772e+00	1.014830e+00	1.031248e+00	1.032822e+00	1.134891e+00	1.093542e+00	1.091123e+00	1.264588e+00	1.147699e+00	1.025823e+00	1.024470e+00	1.043449e+00	1.044263e+00	9.649987e-01	9.507699e-01	9.528830e-01	9.671379e-01	1.251298e+00	1.253772e+00	1.012892e+00	1.025648e+00	1.029754e+00	9.944839e-01	1.229211e+00	8.826405e-01	8.806921e-01	1.072313e+00	1.084188e+00	9.148950e-01	9.107260e-01	9.104877e-01	1.053013e+00	1.051305e+00	1.068943e+00	1.102825e+00	9.182904e-01	1.137322e+00	1.095817e+00	1.262999e+00	1.221472e+00	1.220144e+00	1.010964e+00	1.010263e+00	1.025024e+00	1.026682e+00	1.019716e+00	9.708265e-01	9.732410e-01	1.027136e+00	1.103717e+00	1.146410e+00	1.285953e+00	9.465726e-01	9.496009e-01	9.551982e-01	9.592777e-01	9.701062e-01	9.670543e-01	1.126917e+00	9.049313e-01	9.025323e-01	9.028642e-01	8.928028e-01	8.874260e-01	8.929981e-01	1.257034e+00	1.215638e+00	1.105362e+00	8.904995e-01	8.842324e-01	1.086838e+00	1.103852e+00	1.104352e+00	1.087739e+00	1.230180e+00	1.143776e+00	1.150570e+00	1.238302e+00	9.440802e-01	9.374054e-01	9.092721e-01	9.340436e-01	9.416123e-01	9.517932e-01	1.015138e+00	9.661229e-01	9.679810e-01	1.013440e+00	1.091658e+00	1.084806e+00	9.566815e-01	9.852560e-01	1.001252e+00	8.853077e-01	8.876671e-01	8.870327e-01	9.277876e-01	1.060003e+00	1.057212e+00	1.074613e+00	1.078933e+00	1.273016e+00	8.819127e-01	1.055996e+00	1.009355e+00	1.009665e+00	1.058983e+00	1.104382e+00	9.300222e-01	9.210754e-01	1.106924e+00	1.149213e+00	8.860170e-01	8.855963e-01	8.895633e-01	8.819862e-01	1.158838e+00	1.077341e+00	1.077160e+00	1.169943e+00	1.109240e+00	1.105393e+00	1.101751e+00	1.118924e+00	1.146726e+00	8.371240e-01	1.083151e+00	1.113270e+00	1.108966e+00	1.034883e+00	1.040468e+00	1.025305e+00	1.033415e+00	1.026603e+00	1.028230e+00	1.248765e+00	1.053936e+00	1.045817e+00	1.058725e+00	1.062197e+00	8.774640e-01	1.015216e+00	1.019204e+00	1.034477e+00	1.295884e+00	1.303255e+00	1.099534e+00	1.088933e+00	1.088374e+00	1.031977e+00	1.331416e+00	1.327202e+00	1.380013e+00	1.418440e+00	1.369908e+00	1.343675e+00	1.319727e+00	1.329071e+00	1.245444e+00	1.239992e+00	1.236481e+00	1.230072e+00	1.215591e+00	1.073022e+00	1.067480e+00	1.080499e+00	1.105865e+00	1.146053e+00	1.115892e+00	1.157623e+00	1.147783e+00	1.153186e+00	1.156137e+00	1.151001e+00	1.211146e+00	1.216259e+00	1.209529e+00	1.201125e+00	1.204011e+00	1.196534e+00	1.201574e+00	1.192260e+00	1.076249e+00	1.081019e+00	1.173070e+00	1.177329e+00	1.166962e+00	1.056925e+00	1.064007e+00	1.045253e+00	1.051906e+00	1.144181e+00	1.139116e+00	1.134538e+00	1.129588e+00	1.119200e+00	1.112268e+00	1.115924e+00	1.104843e+00	1.095190e+00	1.140903e+00	1.159886e+00	1.208407e+00	1.090991e+00	1.071510e+00	1.067656e+00	1.090861e+00	1.089923e+00	1.101992e+00	1.095666e+00	1.095513e+00	1.099961e+00	1.098833e+00	1.099916e+00	1.099554e+00	1.103766e+00	1.101336e+00	1.100245e+00	1.101863e+00	1.101653e+00	1.102451e+00	1.102746e+00	1.102012e+00	1.102711e+00	1.110868e+00	1.341053e+00	1.336628e+00	1.306581e+00	1.373100e+00	1.323093e+00	1.278426e+00	1.310787e+00	1.225905e+00	1.196900e+00	1.193178e+00	1.183458e+00	1.171866e+00	1.186165e+00	1.042598e+00	1.050922e+00	1.129354e+00	1.019185e+00	8.920764e-01	1.008864e+00	1.046767e+00	1.043446e+00	1.060055e+00	1.053132e+00	1.108744e+00	1.104712e+00	1.110861e+00	1.105118e+00	1.103671e+00	1.111740e+00	1.101942e+00	1.110778e+00	1.112597e+00	1.097501e+00	1.242604e+00	1.255391e+00	1.215542e+00	1.218419e+00	1.125197e+00	1.106522e+00	1.110596e+00	1.098443e+00	1.103237e+00	1.092477e+00	1.085835e+00	1.070358e+00	9.829666e-01	9.868528e-01	9.795475e-01	9.763368e-01	9.749604e-01	9.810827e-01	1.039201e+00	1.032732e+00	1.080056e+00	1.092674e+00	1.065530e+00	1.016704e+00	1.070930e+00	1.092630e+00	1.074574e+00	1.095533e+00	1.079618e+00	1.083257e+00	1.082551e+00	1.083143e+00	1.083718e+00	1.084370e+00	1.084343e+00	1.086640e+00	1.086900e+00	1.085160e+00	1.085986e+00	1.087836e+00	1.088607e+00	1.086418e+00	1.103521e+00	1.101688e+00	1.275603e+00	1.278680e+00	1.198693e+00	1.178280e+00	1.252359e+00	1.250635e+00	9.500524e-01	9.633721e-01	1.074597e+00	9.116982e-01	8.336303e-01	1.044356e+00	1.052257e+00	1.035498e+00	1.060035e+00	1.063449e+00	1.050119e+00	1.042637e+00	1.053398e+00	1.082041e+00	1.068961e+00	1.073241e+00	1.076590e+00	1.075208e+00	1.065360e+00	1.189140e+00	1.166359e+00	1.020902e+00	1.009014e+00	1.000148e+00	1.004569e+00	9.964620e-01	9.931072e-01	9.897856e-01	9.742961e-01	9.745587e-01	9.750201e-01	9.774292e-01	9.876297e-01	9.963121e-01	9.721473e-01	9.484049e-01	1.062112e+00	1.060778e+00	1.070495e+00	1.070573e+00	1.071677e+00	1.070981e+00	1.073458e+00	1.075104e+00	1.074059e+00	1.086928e+00	1.101467e+00	1.089360e+00	1.087854e+00	1.106572e+00	1.124139e+00	1.033495e+00	1.008355e+00	9.611236e-01	1.003871e+00	9.569828e-01	9.816925e-01	9.325632e-01	8.575748e-01	8.849625e-01	9.122464e-01	8.660004e-01	8.328820e-01	8.932950e-01	8.856997e-01	1.047083e+00	1.035332e+00	1.041358e+00	1.036584e+00	1.030730e+00	1.016124e+00	1.063243e+00	1.046314e+00	1.044586e+00	1.049820e+00	1.056710e+00	1.052975e+00	1.071793e+00	1.058906e+00	1.057125e+00	1.073639e+00	1.074210e+00	1.075347e+00	1.086909e+00	1.074408e+00	1.074639e+00	1.035752e+00	9.745318e-01	9.728967e-01	9.739114e-01	9.736173e-01	9.729714e-01	9.751285e-01	9.760852e-01	9.455285e-01	9.527769e-01	9.385972e-01	8.981667e-01	8.912723e-01	1.041653e+00	1.038956e+00	1.043001e+00	1.053870e+00	1.056400e+00	1.055228e+00	1.057865e+00	1.057076e+00	1.061284e+00	1.060247e+00	1.073870e+00	1.075476e+00	1.088364e+00	1.087904e+00	1.113220e+00	1.038705e+00	1.043541e+00	1.041615e+00	9.923616e-01	9.974906e-01	1.001501e+00	9.680050e-01	9.701803e-01	9.547798e-01	9.602386e-01	9.312619e-01	9.101301e-01	1.013279e+00	1.017227e+00	1.025022e+00	1.046617e+00	1.044415e+00	1.048521e+00	1.049249e+00	1.037185e+00	1.035625e+00	1.043864e+00	1.043928e+00	1.060187e+00	1.059402e+00	1.060711e+00	1.061485e+00	1.071136e+00	1.060170e+00	1.057971e+00	1.073946e+00	1.071127e+00	1.030064e+00	1.048113e+00	1.031561e+00	1.064564e+00	1.073963e+00	1.053517e+00	9.888043e-01	9.822306e-01	9.813389e-01	9.819659e-01	9.778976e-01	9.790410e-01	9.770054e-01	9.722402e-01	9.396148e-01	9.315434e-01	9.383285e-01	9.494237e-01	9.245787e-01	9.118135e-01	9.292914e-01	9.247612e-01	1.029473e+00	1.035016e+00	1.031919e+00	1.058492e+00	1.041492e+00	1.040284e+00	1.060344e+00	1.073539e+00	1.060369e+00	1.006823e+00	1.044452e+00	1.022677e+00	1.037212e+00	1.015846e+00	1.047291e+00	1.036155e+00	1.041973e+00	1.007203e+00	1.013588e+00	9.973787e-01	1.000925e+00	9.845363e-01	9.935255e-01	9.914479e-01	9.860273e-01	9.824370e-01	9.838857e-01	9.739538e-01	9.818508e-01	9.832134e-01	9.733207e-01	9.753002e-01	9.801487e-01	9.742165e-01	9.719388e-01	9.745851e-01	9.692611e-01	9.652423e-01	9.234421e-01	9.336778e-01	1.017155e+00	1.014103e+00	1.015863e+00	9.989691e-01	1.037659e+00	1.028435e+00	1.034331e+00	1.039079e+00	1.038242e+00	1.058883e+00	1.041677e+00	1.043799e+00	1.060146e+00	1.058053e+00	1.034441e+00	1.028938e+00	1.024279e+00	1.010175e+00	1.017143e+00	1.007424e+00	1.001643e+00	1.004541e+00	9.831778e-01	9.850739e-01	9.846747e-01	9.657103e-01	9.586700e-01	9.617732e-01	9.022834e-01	9.049680e-01	8.956238e-01	1.016115e+00	1.012869e+00	1.018427e+00	1.020663e+00	1.030254e+00	1.019153e+00	1.018047e+00	1.020344e+00	1.043991e+00	1.060116e+00	1.022710e+00	1.024453e+00	1.042282e+00	1.044693e+00	1.023379e+00	1.009741e+00	9.917906e-01	9.819518e-01	9.856416e-01	9.948241e-01	9.775138e-01	9.797367e-01	9.693807e-01	9.716591e-01	9.605721e-01	9.630326e-01	9.504041e-01	9.536197e-01	9.983464e-01	9.873777e-01	1.009391e+00	1.023763e+00	1.007421e+00	1.022245e+00	1.013815e+00	1.012192e+00	1.007532e+00	1.009272e+00	1.024870e+00	1.043733e+00	9.926829e-01	9.974782e-01	9.936046e-01	1.017536e+00	1.003708e+00	1.012176e+00	9.984425e-01	9.881865e-01	9.736289e-01	9.777432e-01	9.573318e-01	9.393601e-01	9.427363e-01	9.480631e-01	9.309203e-01	9.366374e-01	9.537035e-01	9.234511e-01	8.897516e-01	1.002821e+00	1.005198e+00	9.923813e-01	9.962676e-01	9.947115e-01	1.017221e+00	1.044223e+00	1.024431e+00	1.024766e+00	1.044196e+00	1.020250e+00	1.028597e+00	9.455842e-01	9.482811e-01	9.413599e-01	9.272906e-01	9.315904e-01	9.458623e-01	9.197827e-01	8.980021e-01	1.005223e+00	1.010644e+00	9.829272e-01	9.892013e-01	9.937276e-01	9.872648e-01	9.908597e-01	9.995784e-01	1.006272e+00	9.946687e-01	9.985339e-01	9.968701e-01	9.976048e-01	1.005337e+00	1.004166e+00	1.022210e+00	1.020930e+00	1.005838e+00	1.008663e+00	1.025434e+00	1.024350e+00	1.005947e+00	1.007271e+00	1.023242e+00	1.007840e+00	1.007431e+00	9.775221e-01	9.799786e-01	9.880616e-01	9.998538e-01	9.923756e-01	9.944101e-01	1.016096e+00	1.001032e+00	1.010164e+00	9.981438e-01	9.956210e-01	9.701875e-01	9.671447e-01	9.643751e-01	9.616120e-01	9.591681e-01	9.571807e-01	9.553050e-01	9.344312e-01	9.815138e-01	1.001117e+00	1.000483e+00	9.856676e-01	9.865240e-01	1.006832e+00	9.915665e-01	9.930473e-01	9.937951e-01	9.682842e-01	9.813275e-01	9.653548e-01	9.916549e-01	9.937004e-01	9.232171e-01	9.174523e-01	1.006835e+00	1.004999e+00	9.625238e-01	9.853474e-01	9.934447e-01	9.912258e-01	1.004346e+00	9.847579e-01	9.692192e-01	9.666819e-01	9.628256e-01	9.588024e-01	9.548492e-01	9.518199e-01	9.466507e-01	9.490404e-01	9.420189e-01	9.443797e-01	9.401122e-01	9.374773e-01	9.241603e-01	9.248506e-01	9.353671e-01	9.324315e-01	9.287700e-01	9.249355e-01	9.205973e-01	9.193823e-01	9.838471e-01	9.897359e-01	9.761531e-01	9.829607e-01	9.743870e-01	9.723596e-01	9.669618e-01	9.757846e-01	9.735075e-01	9.819190e-01	9.827829e-01	9.837790e-01	9.839668e-01	9.863903e-01	9.688871e-01	9.659039e-01	9.898578e-01	9.907981e-01	9.911335e-01	9.922671e-01	9.925633e-01	9.917510e-01	9.919876e-01	9.658554e-01	9.899135e-01	9.876127e-01	9.776554e-01	9.792869e-01	9.733457e-01	9.702559e-01	9.736079e-01	9.660345e-01	9.585405e-01	9.577961e-01	9.485839e-01	9.468996e-01	9.432106e-01	9.397461e-01	9.330428e-01	9.358107e-01	9.286378e-01	9.306076e-01	9.111622e-01	9.158977e-01	9.207817e-01	9.184978e-01	9.669938e-01	9.550741e-01	9.715605e-01	9.640641e-01	9.854035e-01	9.789095e-01	9.873151e-01	9.467241e-01	9.580255e-01	9.650918e-01	9.069682e-01	9.717526e-01	9.709636e-01	9.681475e-01	9.720354e-01	9.759881e-01	9.784917e-01	9.765869e-01	9.789548e-01	9.778237e-01	9.781997e-01	9.779827e-01	9.751399e-01	9.794716e-01	9.558430e-01	9.716353e-01	9.684075e-01	9.547192e-01	9.486696e-01	9.397207e-01	9.457893e-01	9.426958e-01	9.439236e-01	9.337640e-01	9.350777e-01	9.252624e-01	9.282159e-01	9.221467e-01	9.179268e-01	9.167306e-01	9.142727e-01	9.127374e-01	8.937462e-01	9.066454e-01	9.067436e-01	8.995346e-01	8.868247e-01	8.959531e-01	9.428776e-01	9.239146e-01	9.475795e-01	9.641319e-01	9.172084e-01	9.140362e-01	9.131752e-01	9.081189e-01	9.056328e-01	8.879282e-01	9.426259e-01	9.399361e-01	9.233156e-01	9.394548e-01	8.903089e-01	9.050949e-01	8.960461e-01	9.140849e-01	9.397762e-01	8.958441e-01	8.932084e-01	8.980520e-01	9.458990e-01	9.146199e-01	9.004448e-01	9.028692e-01	9.034319e-01	9.036738e-01	9.059211e-01	9.119656e-01	9.057713e-01	9.076703e-01	9.506880e-01	9.529715e-01	9.563665e-01	9.572573e-01	9.590689e-01	9.796908e-01	9.502198e-01	9.461794e-01	9.157864e-01	9.186405e-01	8.981962e-01	9.279756e-01	9.168481e-01	9.036865e-01	9.059041e-01	9.311319e-01	9.447454e-01	9.493339e-01	9.525346e-01	9.350798e-01	9.213938e-01	9.338091e-01	9.122212e-01	9.054262e-01	9.063038e-01	9.156661e-01	9.084436e-01	9.028062e-01	9.067001e-01	9.317602e-01	9.046659e-01	9.052296e-01	9.299810e-01	9.378057e-01	9.179090e-01	9.064758e-01	9.188716e-01	9.414473e-01	9.238355e-01	9.110098e-01	9.602392e-01	9.382977e-01	9.372008e-01	9.405541e-01	9.558534e-01	9.542692e-01	9.425532e-01	9.234229e-01	9.147639e-01	9.053189e-01	8.999495e-01	9.019167e-01	8.969098e-01	8.980529e-01	9.377345e-01	9.449228e-01	9.224682e-01	9.530324e-01	9.180947e-01	9.123415e-01	9.044912e-01	9.133485e-01	9.097139e-01	9.081176e-01	9.080266e-01	9.070359e-01	9.197386e-01	9.147176e-01	9.110104e-01	9.234289e-01	9.703530e-01	9.667384e-01	9.586506e-01	9.274173e-01	9.117284e-01	9.065840e-01	9.147787e-01	9.223140e-01	9.117883e-01	8.980503e-01	9.136185e-01	9.273296e-01	9.467579e-01	9.476722e-01	8.998045e-01	9.371215e-01	9.219548e-01	9.152202e-01	9.116553e-01	9.084795e-01	9.082918e-01	9.070885e-01	9.666617e-01	9.342087e-01	9.199407e-01	8.879772e-01	8.893633e-01	9.462965e-01	9.356057e-01	8.961582e-01	9.543426e-01	8.962564e-01	9.231464e-01	9.010683e-01	9.281174e-01	9.227249e-01	9.118115e-01	9.245246e-01	9.013370e-01	9.031108e-01	8.944687e-01	9.050316e-01	9.081628e-01	9.662718e-01	9.637159e-01	9.445344e-01	9.068461e-01	9.083153e-01	9.834868e-01	9.870581e-01	8.874006e-01	9.516179e-01	9.066521e-01	9.083712e-01	9.964626e-01	8.906628e-01	9.813653e-01	9.827353e-01	9.427981e-01	9.787678e-01	9.177134e-01	8.912183e-01	9.607465e-01	8.959887e-01	9.821486e-01	9.790907e-01	9.177052e-01	9.737528e-01	9.135275e-01	8.951800e-01	1.044776e+00	1.041739e+00	9.108741e-01	9.027669e-01	1.016681e+00	1.057717e+00	9.131534e-01	1.073396e+00	1.083636e+00	1.088120e+00	9.739970e-01	1.358236e+00	1.331013e+00	1.250785e+00	1.158318e+00	1.089711e+00	9.886127e-01	9.140629e-01	8.905201e-01	8.963715e-01	8.990257e-01	8.991121e-01	8.934578e-01	8.838246e-01	8.714439e-01	8.688800e-01	8.626740e-01	8.589286e-01	8.517881e-01	8.450992e-01	8.407050e-01	8.320217e-01	8.199884e-01	8.127490e-01	8.000335e-01	7.864738e-01	7.769135e-01	7.672602e-01	7.588424e-01	7.479630e-01	7.